n -t 0 -s 0 -S DLABEL -l "N1" -L ""
n -t 0 -s 1 -S DLABEL -l "N2" -L ""
n -t 0 -s 2 -S DLABEL -l "N3" -L ""
n -t 0 -s 3 -S DLABEL -l "N4" -L ""
n -t 0 -s 4 -S DLABEL -l "N5" -L ""
V -t * -v 1.0a5 -a 0
A -t * -n 1 -p 0 -o 0x7fffffff -c 30 -a 1
A -t * -h 1 -m 1073741823 -s 0
n -t * -a 4 -s 4 -S UP -v circle -c purple -i purple
n -t * -a 0 -s 0 -S UP -v circle -c red -i red
n -t * -a 1 -s 1 -S UP -v circle -c blue -i blue
n -t * -a 2 -s 2 -S UP -v circle -c green -i green
n -t * -a 3 -s 3 -S UP -v circle -c orange -i orange
l -t * -s 0 -d 1 -S UP -r 10000000 -D 0.01 -c red
l -t * -s 1 -d 2 -S UP -r 10000000 -D 0.01 -c blue
l -t * -s 2 -d 3 -S UP -r 10000000 -D 0.01 -c green
l -t * -s 3 -d 4 -S UP -r 10000000 -D 0.01 -c orange
l -t * -s 0 -d 4 -S UP -r 5000000 -D 0.050000000000000003 -c purple
l -t * -s 1 -d 3 -S UP -r 5000000 -D 0.029999999999999999 -c yellow
+ -t 0.000169788487334637 -s 0 -d 1 -p rtProtoDV -e 5 -c 0 -i 0 -a 0 -x {0.2 1.1 -1 ------- null}
- -t 0.000169788487334637 -s 0 -d 1 -p rtProtoDV -e 5 -c 0 -i 0 -a 0 -x {0.2 1.1 -1 ------- null}
h -t 0.000169788487334637 -s 0 -d 1 -p rtProtoDV -e 5 -c 0 -i 0 -a 0 -x {0.2 1.1 -1 ------- null}
+ -t 0.000169788487334637 -s 0 -d 4 -p rtProtoDV -e 5 -c 0 -i 1 -a 0 -x {0.2 4.2 -1 ------- null}
- -t 0.000169788487334637 -s 0 -d 4 -p rtProtoDV -e 5 -c 0 -i 1 -a 0 -x {0.2 4.2 -1 ------- null}
h -t 0.000169788487334637 -s 0 -d 4 -p rtProtoDV -e 5 -c 0 -i 1 -a 0 -x {0.2 4.2 -1 ------- null}
+ -t 0.00710233021858257 -s 2 -d 1 -p rtProtoDV -e 5 -c 0 -i 2 -a 0 -x {2.1 1.1 -1 ------- null}
- -t 0.00710233021858257 -s 2 -d 1 -p rtProtoDV -e 5 -c 0 -i 2 -a 0 -x {2.1 1.1 -1 ------- null}
h -t 0.00710233021858257 -s 2 -d 1 -p rtProtoDV -e 5 -c 0 -i 2 -a 0 -x {2.1 1.1 -1 ------- null}
+ -t 0.00710233021858257 -s 2 -d 3 -p rtProtoDV -e 5 -c 0 -i 3 -a 0 -x {2.1 3.1 -1 ------- null}
- -t 0.00710233021858257 -s 2 -d 3 -p rtProtoDV -e 5 -c 0 -i 3 -a 0 -x {2.1 3.1 -1 ------- null}
h -t 0.00710233021858257 -s 2 -d 3 -p rtProtoDV -e 5 -c 0 -i 3 -a 0 -x {2.1 3.1 -1 ------- null}
r -t 0.0101737884873346 -s 0 -d 1 -p rtProtoDV -e 5 -c 0 -i 0 -a 0 -x {0.2 1.1 -1 ------- null}
+ -t 0.0101737884873346 -s 1 -d 0 -p rtProtoDV -e 5 -c 0 -i 4 -a 0 -x {1.1 0.2 -1 ------- null}
- -t 0.0101737884873346 -s 1 -d 0 -p rtProtoDV -e 5 -c 0 -i 4 -a 0 -x {1.1 0.2 -1 ------- null}
h -t 0.0101737884873346 -s 1 -d 0 -p rtProtoDV -e 5 -c 0 -i 4 -a 0 -x {1.1 0.2 -1 ------- null}
+ -t 0.0101737884873346 -s 1 -d 2 -p rtProtoDV -e 5 -c 0 -i 5 -a 0 -x {1.1 2.1 -1 ------- null}
- -t 0.0101737884873346 -s 1 -d 2 -p rtProtoDV -e 5 -c 0 -i 5 -a 0 -x {1.1 2.1 -1 ------- null}
h -t 0.0101737884873346 -s 1 -d 2 -p rtProtoDV -e 5 -c 0 -i 5 -a 0 -x {1.1 2.1 -1 ------- null}
+ -t 0.0101737884873346 -s 1 -d 3 -p rtProtoDV -e 5 -c 0 -i 6 -a 0 -x {1.1 3.1 -1 ------- null}
- -t 0.0101737884873346 -s 1 -d 3 -p rtProtoDV -e 5 -c 0 -i 6 -a 0 -x {1.1 3.1 -1 ------- null}
h -t 0.0101737884873346 -s 1 -d 3 -p rtProtoDV -e 5 -c 0 -i 6 -a 0 -x {1.1 3.1 -1 ------- null}
r -t 0.0171063302185826 -s 2 -d 1 -p rtProtoDV -e 5 -c 0 -i 2 -a 0 -x {2.1 1.1 -1 ------- null}
r -t 0.0171063302185826 -s 2 -d 3 -p rtProtoDV -e 5 -c 0 -i 3 -a 0 -x {2.1 3.1 -1 ------- null}
r -t 0.0201777884873346 -s 1 -d 0 -p rtProtoDV -e 5 -c 0 -i 4 -a 0 -x {1.1 0.2 -1 ------- null}
+ -t 0.0201777884873346 -s 0 -d 1 -p rtProtoDV -e 5 -c 0 -i 7 -a 0 -x {0.2 1.1 -1 ------- null}
- -t 0.0201777884873346 -s 0 -d 1 -p rtProtoDV -e 5 -c 0 -i 7 -a 0 -x {0.2 1.1 -1 ------- null}
h -t 0.0201777884873346 -s 0 -d 1 -p rtProtoDV -e 5 -c 0 -i 7 -a 0 -x {0.2 1.1 -1 ------- null}
+ -t 0.0201777884873346 -s 0 -d 4 -p rtProtoDV -e 5 -c 0 -i 8 -a 0 -x {0.2 4.2 -1 ------- null}
- -t 0.0201777884873346 -s 0 -d 4 -p rtProtoDV -e 5 -c 0 -i 8 -a 0 -x {0.2 4.2 -1 ------- null}
h -t 0.0201777884873346 -s 0 -d 4 -p rtProtoDV -e 5 -c 0 -i 8 -a 0 -x {0.2 4.2 -1 ------- null}
r -t 0.0201777884873346 -s 1 -d 2 -p rtProtoDV -e 5 -c 0 -i 5 -a 0 -x {1.1 2.1 -1 ------- null}
+ -t 0.0201777884873346 -s 2 -d 1 -p rtProtoDV -e 5 -c 0 -i 9 -a 0 -x {2.1 1.1 -1 ------- null}
- -t 0.0201777884873346 -s 2 -d 1 -p rtProtoDV -e 5 -c 0 -i 9 -a 0 -x {2.1 1.1 -1 ------- null}
h -t 0.0201777884873346 -s 2 -d 1 -p rtProtoDV -e 5 -c 0 -i 9 -a 0 -x {2.1 1.1 -1 ------- null}
+ -t 0.0201777884873346 -s 2 -d 3 -p rtProtoDV -e 5 -c 0 -i 10 -a 0 -x {2.1 3.1 -1 ------- null}
- -t 0.0201777884873346 -s 2 -d 3 -p rtProtoDV -e 5 -c 0 -i 10 -a 0 -x {2.1 3.1 -1 ------- null}
h -t 0.0201777884873346 -s 2 -d 3 -p rtProtoDV -e 5 -c 0 -i 10 -a 0 -x {2.1 3.1 -1 ------- null}
r -t 0.0301817884873346 -s 0 -d 1 -p rtProtoDV -e 5 -c 0 -i 7 -a 0 -x {0.2 1.1 -1 ------- null}
r -t 0.0301817884873346 -s 2 -d 1 -p rtProtoDV -e 5 -c 0 -i 9 -a 0 -x {2.1 1.1 -1 ------- null}
r -t 0.0301817884873346 -s 2 -d 3 -p rtProtoDV -e 5 -c 0 -i 10 -a 0 -x {2.1 3.1 -1 ------- null}
+ -t 0.0301817884873346 -s 3 -d 1 -p rtProtoDV -e 5 -c 0 -i 11 -a 0 -x {3.1 1.1 -1 ------- null}
- -t 0.0301817884873346 -s 3 -d 1 -p rtProtoDV -e 5 -c 0 -i 11 -a 0 -x {3.1 1.1 -1 ------- null}
h -t 0.0301817884873346 -s 3 -d 1 -p rtProtoDV -e 5 -c 0 -i 11 -a 0 -x {3.1 1.1 -1 ------- null}
+ -t 0.0301817884873346 -s 3 -d 2 -p rtProtoDV -e 5 -c 0 -i 12 -a 0 -x {3.1 2.1 -1 ------- null}
- -t 0.0301817884873346 -s 3 -d 2 -p rtProtoDV -e 5 -c 0 -i 12 -a 0 -x {3.1 2.1 -1 ------- null}
h -t 0.0301817884873346 -s 3 -d 2 -p rtProtoDV -e 5 -c 0 -i 12 -a 0 -x {3.1 2.1 -1 ------- null}
+ -t 0.0301817884873346 -s 3 -d 4 -p rtProtoDV -e 5 -c 0 -i 13 -a 0 -x {3.1 4.2 -1 ------- null}
- -t 0.0301817884873346 -s 3 -d 4 -p rtProtoDV -e 5 -c 0 -i 13 -a 0 -x {3.1 4.2 -1 ------- null}
h -t 0.0301817884873346 -s 3 -d 4 -p rtProtoDV -e 5 -c 0 -i 13 -a 0 -x {3.1 4.2 -1 ------- null}
r -t 0.0401817884873346 -s 1 -d 3 -p rtProtoDV -e 5 -c 0 -i 6 -a 0 -x {1.1 3.1 -1 ------- null}
+ -t 0.0401817884873346 -s 3 -d 1 -p rtProtoDV -e 5 -c 0 -i 14 -a 0 -x {3.1 1.1 -1 ------- null}
- -t 0.0401817884873346 -s 3 -d 1 -p rtProtoDV -e 5 -c 0 -i 14 -a 0 -x {3.1 1.1 -1 ------- null}
h -t 0.0401817884873346 -s 3 -d 1 -p rtProtoDV -e 5 -c 0 -i 14 -a 0 -x {3.1 1.1 -1 ------- null}
+ -t 0.0401817884873346 -s 3 -d 2 -p rtProtoDV -e 5 -c 0 -i 15 -a 0 -x {3.1 2.1 -1 ------- null}
- -t 0.0401817884873346 -s 3 -d 2 -p rtProtoDV -e 5 -c 0 -i 15 -a 0 -x {3.1 2.1 -1 ------- null}
h -t 0.0401817884873346 -s 3 -d 2 -p rtProtoDV -e 5 -c 0 -i 15 -a 0 -x {3.1 2.1 -1 ------- null}
+ -t 0.0401817884873346 -s 3 -d 4 -p rtProtoDV -e 5 -c 0 -i 16 -a 0 -x {3.1 4.2 -1 ------- null}
- -t 0.0401817884873346 -s 3 -d 4 -p rtProtoDV -e 5 -c 0 -i 16 -a 0 -x {3.1 4.2 -1 ------- null}
h -t 0.0401817884873346 -s 3 -d 4 -p rtProtoDV -e 5 -c 0 -i 16 -a 0 -x {3.1 4.2 -1 ------- null}
r -t 0.0401857884873346 -s 3 -d 2 -p rtProtoDV -e 5 -c 0 -i 12 -a 0 -x {3.1 2.1 -1 ------- null}
+ -t 0.0401857884873346 -s 2 -d 1 -p rtProtoDV -e 5 -c 0 -i 17 -a 0 -x {2.1 1.1 -1 ------- null}
- -t 0.0401857884873346 -s 2 -d 1 -p rtProtoDV -e 5 -c 0 -i 17 -a 0 -x {2.1 1.1 -1 ------- null}
h -t 0.0401857884873346 -s 2 -d 1 -p rtProtoDV -e 5 -c 0 -i 17 -a 0 -x {2.1 1.1 -1 ------- null}
+ -t 0.0401857884873346 -s 2 -d 3 -p rtProtoDV -e 5 -c 0 -i 18 -a 0 -x {2.1 3.1 -1 ------- null}
- -t 0.0401857884873346 -s 2 -d 3 -p rtProtoDV -e 5 -c 0 -i 18 -a 0 -x {2.1 3.1 -1 ------- null}
h -t 0.0401857884873346 -s 2 -d 3 -p rtProtoDV -e 5 -c 0 -i 18 -a 0 -x {2.1 3.1 -1 ------- null}
r -t 0.0401857884873346 -s 3 -d 4 -p rtProtoDV -e 5 -c 0 -i 13 -a 0 -x {3.1 4.2 -1 ------- null}
+ -t 0.0401857884873346 -s 4 -d 0 -p rtProtoDV -e 5 -c 0 -i 19 -a 0 -x {4.2 0.2 -1 ------- null}
- -t 0.0401857884873346 -s 4 -d 0 -p rtProtoDV -e 5 -c 0 -i 19 -a 0 -x {4.2 0.2 -1 ------- null}
h -t 0.0401857884873346 -s 4 -d 0 -p rtProtoDV -e 5 -c 0 -i 19 -a 0 -x {4.2 0.2 -1 ------- null}
+ -t 0.0401857884873346 -s 4 -d 3 -p rtProtoDV -e 5 -c 0 -i 20 -a 0 -x {4.2 3.1 -1 ------- null}
- -t 0.0401857884873346 -s 4 -d 3 -p rtProtoDV -e 5 -c 0 -i 20 -a 0 -x {4.2 3.1 -1 ------- null}
h -t 0.0401857884873346 -s 4 -d 3 -p rtProtoDV -e 5 -c 0 -i 20 -a 0 -x {4.2 3.1 -1 ------- null}
+ -t 0.04406133552271 -s 3 -d 1 -p rtProtoDV -e 5 -c 0 -i 21 -a 0 -x {3.1 1.1 -1 ------- null}
- -t 0.04406133552271 -s 3 -d 1 -p rtProtoDV -e 5 -c 0 -i 21 -a 0 -x {3.1 1.1 -1 ------- null}
h -t 0.04406133552271 -s 3 -d 1 -p rtProtoDV -e 5 -c 0 -i 21 -a 0 -x {3.1 1.1 -1 ------- null}
+ -t 0.04406133552271 -s 3 -d 2 -p rtProtoDV -e 5 -c 0 -i 22 -a 0 -x {3.1 2.1 -1 ------- null}
- -t 0.04406133552271 -s 3 -d 2 -p rtProtoDV -e 5 -c 0 -i 22 -a 0 -x {3.1 2.1 -1 ------- null}
h -t 0.04406133552271 -s 3 -d 2 -p rtProtoDV -e 5 -c 0 -i 22 -a 0 -x {3.1 2.1 -1 ------- null}
+ -t 0.04406133552271 -s 3 -d 4 -p rtProtoDV -e 5 -c 0 -i 23 -a 0 -x {3.1 4.2 -1 ------- null}
- -t 0.04406133552271 -s 3 -d 4 -p rtProtoDV -e 5 -c 0 -i 23 -a 0 -x {3.1 4.2 -1 ------- null}
h -t 0.04406133552271 -s 3 -d 4 -p rtProtoDV -e 5 -c 0 -i 23 -a 0 -x {3.1 4.2 -1 ------- null}
r -t 0.0501777884873346 -s 0 -d 4 -p rtProtoDV -e 5 -c 0 -i 1 -a 0 -x {0.2 4.2 -1 ------- null}
r -t 0.0501857884873346 -s 3 -d 2 -p rtProtoDV -e 5 -c 0 -i 15 -a 0 -x {3.1 2.1 -1 ------- null}
r -t 0.0501857884873346 -s 3 -d 4 -p rtProtoDV -e 5 -c 0 -i 16 -a 0 -x {3.1 4.2 -1 ------- null}
r -t 0.0501897884873346 -s 2 -d 1 -p rtProtoDV -e 5 -c 0 -i 17 -a 0 -x {2.1 1.1 -1 ------- null}
r -t 0.0501897884873346 -s 2 -d 3 -p rtProtoDV -e 5 -c 0 -i 18 -a 0 -x {2.1 3.1 -1 ------- null}
r -t 0.0501897884873346 -s 4 -d 3 -p rtProtoDV -e 5 -c 0 -i 20 -a 0 -x {4.2 3.1 -1 ------- null}
r -t 0.05406533552271 -s 3 -d 2 -p rtProtoDV -e 5 -c 0 -i 22 -a 0 -x {3.1 2.1 -1 ------- null}
r -t 0.05406533552271 -s 3 -d 4 -p rtProtoDV -e 5 -c 0 -i 23 -a 0 -x {3.1 4.2 -1 ------- null}
r -t 0.0601897884873346 -s 3 -d 1 -p rtProtoDV -e 5 -c 0 -i 11 -a 0 -x {3.1 1.1 -1 ------- null}
r -t 0.0701857884873346 -s 0 -d 4 -p rtProtoDV -e 5 -c 0 -i 8 -a 0 -x {0.2 4.2 -1 ------- null}
r -t 0.0701897884873346 -s 3 -d 1 -p rtProtoDV -e 5 -c 0 -i 14 -a 0 -x {3.1 1.1 -1 ------- null}
r -t 0.07406933552271 -s 3 -d 1 -p rtProtoDV -e 5 -c 0 -i 21 -a 0 -x {3.1 1.1 -1 ------- null}
r -t 0.0901937884873346 -s 4 -d 0 -p rtProtoDV -e 5 -c 0 -i 19 -a 0 -x {4.2 0.2 -1 ------- null}
+ -t 0.22058669092161 -s 4 -d 0 -p rtProtoDV -e 5 -c 0 -i 24 -a 0 -x {4.2 0.2 -1 ------- null}
- -t 0.22058669092161 -s 4 -d 0 -p rtProtoDV -e 5 -c 0 -i 24 -a 0 -x {4.2 0.2 -1 ------- null}
h -t 0.22058669092161 -s 4 -d 0 -p rtProtoDV -e 5 -c 0 -i 24 -a 0 -x {4.2 0.2 -1 ------- null}
+ -t 0.22058669092161 -s 4 -d 3 -p rtProtoDV -e 5 -c 0 -i 25 -a 0 -x {4.2 3.1 -1 ------- null}
- -t 0.22058669092161 -s 4 -d 3 -p rtProtoDV -e 5 -c 0 -i 25 -a 0 -x {4.2 3.1 -1 ------- null}
h -t 0.22058669092161 -s 4 -d 3 -p rtProtoDV -e 5 -c 0 -i 25 -a 0 -x {4.2 3.1 -1 ------- null}
r -t 0.23059069092161 -s 4 -d 3 -p rtProtoDV -e 5 -c 0 -i 25 -a 0 -x {4.2 3.1 -1 ------- null}
r -t 0.27059469092161 -s 4 -d 0 -p rtProtoDV -e 5 -c 0 -i 24 -a 0 -x {4.2 0.2 -1 ------- null}
+ -t 0.277940357931862 -s 1 -d 0 -p rtProtoDV -e 5 -c 0 -i 26 -a 0 -x {1.1 0.2 -1 ------- null}
- -t 0.277940357931862 -s 1 -d 0 -p rtProtoDV -e 5 -c 0 -i 26 -a 0 -x {1.1 0.2 -1 ------- null}
h -t 0.277940357931862 -s 1 -d 0 -p rtProtoDV -e 5 -c 0 -i 26 -a 0 -x {1.1 0.2 -1 ------- null}
+ -t 0.277940357931862 -s 1 -d 2 -p rtProtoDV -e 5 -c 0 -i 27 -a 0 -x {1.1 2.1 -1 ------- null}
- -t 0.277940357931862 -s 1 -d 2 -p rtProtoDV -e 5 -c 0 -i 27 -a 0 -x {1.1 2.1 -1 ------- null}
h -t 0.277940357931862 -s 1 -d 2 -p rtProtoDV -e 5 -c 0 -i 27 -a 0 -x {1.1 2.1 -1 ------- null}
+ -t 0.277940357931862 -s 1 -d 3 -p rtProtoDV -e 5 -c 0 -i 28 -a 0 -x {1.1 3.1 -1 ------- null}
- -t 0.277940357931862 -s 1 -d 3 -p rtProtoDV -e 5 -c 0 -i 28 -a 0 -x {1.1 3.1 -1 ------- null}
h -t 0.277940357931862 -s 1 -d 3 -p rtProtoDV -e 5 -c 0 -i 28 -a 0 -x {1.1 3.1 -1 ------- null}
r -t 0.287944357931862 -s 1 -d 0 -p rtProtoDV -e 5 -c 0 -i 26 -a 0 -x {1.1 0.2 -1 ------- null}
r -t 0.287944357931862 -s 1 -d 2 -p rtProtoDV -e 5 -c 0 -i 27 -a 0 -x {1.1 2.1 -1 ------- null}
r -t 0.307948357931862 -s 1 -d 3 -p rtProtoDV -e 5 -c 0 -i 28 -a 0 -x {1.1 3.1 -1 ------- null}
+ -t 1 -s 0 -d 4 -p tcp -e 40 -c 0 -i 29 -a 0 -x {0.0 4.0 0 ------- null}
- -t 1 -s 0 -d 4 -p tcp -e 40 -c 0 -i 29 -a 0 -x {0.0 4.0 0 ------- null}
h -t 1 -s 0 -d 4 -p tcp -e 40 -c 0 -i 29 -a 0 -x {0.0 4.0 -1 ------- null}
r -t 1.050064 -s 0 -d 4 -p tcp -e 40 -c 0 -i 29 -a 0 -x {0.0 4.0 0 ------- null}
+ -t 1.050064 -s 4 -d 0 -p ack -e 40 -c 0 -i 30 -a 0 -x {4.0 0.0 0 ------- null}
- -t 1.050064 -s 4 -d 0 -p ack -e 40 -c 0 -i 30 -a 0 -x {4.0 0.0 0 ------- null}
h -t 1.050064 -s 4 -d 0 -p ack -e 40 -c 0 -i 30 -a 0 -x {4.0 0.0 -1 ------- null}
r -t 1.100128 -s 4 -d 0 -p ack -e 40 -c 0 -i 30 -a 0 -x {4.0 0.0 0 ------- null}
+ -t 1.100128 -s 0 -d 4 -p tcp -e 1040 -c 0 -i 31 -a 0 -x {0.0 4.0 1 ------- null}
- -t 1.100128 -s 0 -d 4 -p tcp -e 1040 -c 0 -i 31 -a 0 -x {0.0 4.0 1 ------- null}
h -t 1.100128 -s 0 -d 4 -p tcp -e 1040 -c 0 -i 31 -a 0 -x {0.0 4.0 -1 ------- null}
+ -t 1.100128 -s 0 -d 4 -p tcp -e 1040 -c 0 -i 32 -a 0 -x {0.0 4.0 2 ------- null}
- -t 1.101792 -s 0 -d 4 -p tcp -e 1040 -c 0 -i 32 -a 0 -x {0.0 4.0 2 ------- null}
h -t 1.101792 -s 0 -d 4 -p tcp -e 1040 -c 0 -i 32 -a 0 -x {0.0 4.0 -1 ------- null}
r -t 1.151792 -s 0 -d 4 -p tcp -e 1040 -c 0 -i 31 -a 0 -x {0.0 4.0 1 ------- null}
+ -t 1.151792 -s 4 -d 0 -p ack -e 40 -c 0 -i 33 -a 0 -x {4.0 0.0 1 ------- null}
- -t 1.151792 -s 4 -d 0 -p ack -e 40 -c 0 -i 33 -a 0 -x {4.0 0.0 1 ------- null}
h -t 1.151792 -s 4 -d 0 -p ack -e 40 -c 0 -i 33 -a 0 -x {4.0 0.0 -1 ------- null}
r -t 1.153456 -s 0 -d 4 -p tcp -e 1040 -c 0 -i 32 -a 0 -x {0.0 4.0 2 ------- null}
+ -t 1.153456 -s 4 -d 0 -p ack -e 40 -c 0 -i 34 -a 0 -x {4.0 0.0 2 ------- null}
- -t 1.153456 -s 4 -d 0 -p ack -e 40 -c 0 -i 34 -a 0 -x {4.0 0.0 2 ------- null}
h -t 1.153456 -s 4 -d 0 -p ack -e 40 -c 0 -i 34 -a 0 -x {4.0 0.0 -1 ------- null}
r -t 1.201856 -s 4 -d 0 -p ack -e 40 -c 0 -i 33 -a 0 -x {4.0 0.0 1 ------- null}
+ -t 1.201856 -s 0 -d 4 -p tcp -e 1040 -c 0 -i 35 -a 0 -x {0.0 4.0 3 ------- null}
- -t 1.201856 -s 0 -d 4 -p tcp -e 1040 -c 0 -i 35 -a 0 -x {0.0 4.0 3 ------- null}
h -t 1.201856 -s 0 -d 4 -p tcp -e 1040 -c 0 -i 35 -a 0 -x {0.0 4.0 -1 ------- null}
+ -t 1.201856 -s 0 -d 4 -p tcp -e 1040 -c 0 -i 36 -a 0 -x {0.0 4.0 4 ------- null}
r -t 1.20352 -s 4 -d 0 -p ack -e 40 -c 0 -i 34 -a 0 -x {4.0 0.0 2 ------- null}
+ -t 1.20352 -s 0 -d 4 -p tcp -e 1040 -c 0 -i 37 -a 0 -x {0.0 4.0 5 ------- null}
+ -t 1.20352 -s 0 -d 4 -p tcp -e 1040 -c 0 -i 38 -a 0 -x {0.0 4.0 6 ------- null}
- -t 1.20352 -s 0 -d 4 -p tcp -e 1040 -c 0 -i 36 -a 0 -x {0.0 4.0 4 ------- null}
h -t 1.20352 -s 0 -d 4 -p tcp -e 1040 -c 0 -i 36 -a 0 -x {0.0 4.0 -1 ------- null}
- -t 1.205184 -s 0 -d 4 -p tcp -e 1040 -c 0 -i 37 -a 0 -x {0.0 4.0 5 ------- null}
h -t 1.205184 -s 0 -d 4 -p tcp -e 1040 -c 0 -i 37 -a 0 -x {0.0 4.0 -1 ------- null}
- -t 1.206848 -s 0 -d 4 -p tcp -e 1040 -c 0 -i 38 -a 0 -x {0.0 4.0 6 ------- null}
h -t 1.206848 -s 0 -d 4 -p tcp -e 1040 -c 0 -i 38 -a 0 -x {0.0 4.0 -1 ------- null}
r -t 1.25352 -s 0 -d 4 -p tcp -e 1040 -c 0 -i 35 -a 0 -x {0.0 4.0 3 ------- null}
+ -t 1.25352 -s 4 -d 0 -p ack -e 40 -c 0 -i 39 -a 0 -x {4.0 0.0 3 ------- null}
- -t 1.25352 -s 4 -d 0 -p ack -e 40 -c 0 -i 39 -a 0 -x {4.0 0.0 3 ------- null}
h -t 1.25352 -s 4 -d 0 -p ack -e 40 -c 0 -i 39 -a 0 -x {4.0 0.0 -1 ------- null}
r -t 1.255184 -s 0 -d 4 -p tcp -e 1040 -c 0 -i 36 -a 0 -x {0.0 4.0 4 ------- null}
+ -t 1.255184 -s 4 -d 0 -p ack -e 40 -c 0 -i 40 -a 0 -x {4.0 0.0 4 ------- null}
- -t 1.255184 -s 4 -d 0 -p ack -e 40 -c 0 -i 40 -a 0 -x {4.0 0.0 4 ------- null}
h -t 1.255184 -s 4 -d 0 -p ack -e 40 -c 0 -i 40 -a 0 -x {4.0 0.0 -1 ------- null}
r -t 1.256848 -s 0 -d 4 -p tcp -e 1040 -c 0 -i 37 -a 0 -x {0.0 4.0 5 ------- null}
+ -t 1.256848 -s 4 -d 0 -p ack -e 40 -c 0 -i 41 -a 0 -x {4.0 0.0 5 ------- null}
- -t 1.256848 -s 4 -d 0 -p ack -e 40 -c 0 -i 41 -a 0 -x {4.0 0.0 5 ------- null}
h -t 1.256848 -s 4 -d 0 -p ack -e 40 -c 0 -i 41 -a 0 -x {4.0 0.0 -1 ------- null}
r -t 1.258512 -s 0 -d 4 -p tcp -e 1040 -c 0 -i 38 -a 0 -x {0.0 4.0 6 ------- null}
+ -t 1.258512 -s 4 -d 0 -p ack -e 40 -c 0 -i 42 -a 0 -x {4.0 0.0 6 ------- null}
- -t 1.258512 -s 4 -d 0 -p ack -e 40 -c 0 -i 42 -a 0 -x {4.0 0.0 6 ------- null}
h -t 1.258512 -s 4 -d 0 -p ack -e 40 -c 0 -i 42 -a 0 -x {4.0 0.0 -1 ------- null}
r -t 1.303584 -s 4 -d 0 -p ack -e 40 -c 0 -i 39 -a 0 -x {4.0 0.0 3 ------- null}
+ -t 1.303584 -s 0 -d 4 -p tcp -e 1040 -c 0 -i 43 -a 0 -x {0.0 4.0 7 ------- null}
- -t 1.303584 -s 0 -d 4 -p tcp -e 1040 -c 0 -i 43 -a 0 -x {0.0 4.0 7 ------- null}
h -t 1.303584 -s 0 -d 4 -p tcp -e 1040 -c 0 -i 43 -a 0 -x {0.0 4.0 -1 ------- null}
+ -t 1.303584 -s 0 -d 4 -p tcp -e 1040 -c 0 -i 44 -a 0 -x {0.0 4.0 8 ------- null}
r -t 1.305248 -s 4 -d 0 -p ack -e 40 -c 0 -i 40 -a 0 -x {4.0 0.0 4 ------- null}
+ -t 1.305248 -s 0 -d 4 -p tcp -e 1040 -c 0 -i 45 -a 0 -x {0.0 4.0 9 ------- null}
+ -t 1.305248 -s 0 -d 4 -p tcp -e 1040 -c 0 -i 46 -a 0 -x {0.0 4.0 10 ------- null}
- -t 1.305248 -s 0 -d 4 -p tcp -e 1040 -c 0 -i 44 -a 0 -x {0.0 4.0 8 ------- null}
h -t 1.305248 -s 0 -d 4 -p tcp -e 1040 -c 0 -i 44 -a 0 -x {0.0 4.0 -1 ------- null}
r -t 1.306912 -s 4 -d 0 -p ack -e 40 -c 0 -i 41 -a 0 -x {4.0 0.0 5 ------- null}
+ -t 1.306912 -s 0 -d 4 -p tcp -e 1040 -c 0 -i 47 -a 0 -x {0.0 4.0 11 ------- null}
+ -t 1.306912 -s 0 -d 4 -p tcp -e 1040 -c 0 -i 48 -a 0 -x {0.0 4.0 12 ------- null}
- -t 1.306912 -s 0 -d 4 -p tcp -e 1040 -c 0 -i 45 -a 0 -x {0.0 4.0 9 ------- null}
h -t 1.306912 -s 0 -d 4 -p tcp -e 1040 -c 0 -i 45 -a 0 -x {0.0 4.0 -1 ------- null}
r -t 1.308576 -s 4 -d 0 -p ack -e 40 -c 0 -i 42 -a 0 -x {4.0 0.0 6 ------- null}
+ -t 1.308576 -s 0 -d 4 -p tcp -e 1040 -c 0 -i 49 -a 0 -x {0.0 4.0 13 ------- null}
+ -t 1.308576 -s 0 -d 4 -p tcp -e 1040 -c 0 -i 50 -a 0 -x {0.0 4.0 14 ------- null}
- -t 1.308576 -s 0 -d 4 -p tcp -e 1040 -c 0 -i 46 -a 0 -x {0.0 4.0 10 ------- null}
h -t 1.308576 -s 0 -d 4 -p tcp -e 1040 -c 0 -i 46 -a 0 -x {0.0 4.0 -1 ------- null}
- -t 1.31024 -s 0 -d 4 -p tcp -e 1040 -c 0 -i 47 -a 0 -x {0.0 4.0 11 ------- null}
h -t 1.31024 -s 0 -d 4 -p tcp -e 1040 -c 0 -i 47 -a 0 -x {0.0 4.0 -1 ------- null}
- -t 1.311904 -s 0 -d 4 -p tcp -e 1040 -c 0 -i 48 -a 0 -x {0.0 4.0 12 ------- null}
h -t 1.311904 -s 0 -d 4 -p tcp -e 1040 -c 0 -i 48 -a 0 -x {0.0 4.0 -1 ------- null}
- -t 1.313568 -s 0 -d 4 -p tcp -e 1040 -c 0 -i 49 -a 0 -x {0.0 4.0 13 ------- null}
h -t 1.313568 -s 0 -d 4 -p tcp -e 1040 -c 0 -i 49 -a 0 -x {0.0 4.0 -1 ------- null}
- -t 1.315232 -s 0 -d 4 -p tcp -e 1040 -c 0 -i 50 -a 0 -x {0.0 4.0 14 ------- null}
h -t 1.315232 -s 0 -d 4 -p tcp -e 1040 -c 0 -i 50 -a 0 -x {0.0 4.0 -1 ------- null}
r -t 1.355248 -s 0 -d 4 -p tcp -e 1040 -c 0 -i 43 -a 0 -x {0.0 4.0 7 ------- null}
+ -t 1.355248 -s 4 -d 0 -p ack -e 40 -c 0 -i 51 -a 0 -x {4.0 0.0 7 ------- null}
- -t 1.355248 -s 4 -d 0 -p ack -e 40 -c 0 -i 51 -a 0 -x {4.0 0.0 7 ------- null}
h -t 1.355248 -s 4 -d 0 -p ack -e 40 -c 0 -i 51 -a 0 -x {4.0 0.0 -1 ------- null}
r -t 1.356912 -s 0 -d 4 -p tcp -e 1040 -c 0 -i 44 -a 0 -x {0.0 4.0 8 ------- null}
+ -t 1.356912 -s 4 -d 0 -p ack -e 40 -c 0 -i 52 -a 0 -x {4.0 0.0 8 ------- null}
- -t 1.356912 -s 4 -d 0 -p ack -e 40 -c 0 -i 52 -a 0 -x {4.0 0.0 8 ------- null}
h -t 1.356912 -s 4 -d 0 -p ack -e 40 -c 0 -i 52 -a 0 -x {4.0 0.0 -1 ------- null}
r -t 1.358576 -s 0 -d 4 -p tcp -e 1040 -c 0 -i 45 -a 0 -x {0.0 4.0 9 ------- null}
+ -t 1.358576 -s 4 -d 0 -p ack -e 40 -c 0 -i 53 -a 0 -x {4.0 0.0 9 ------- null}
- -t 1.358576 -s 4 -d 0 -p ack -e 40 -c 0 -i 53 -a 0 -x {4.0 0.0 9 ------- null}
h -t 1.358576 -s 4 -d 0 -p ack -e 40 -c 0 -i 53 -a 0 -x {4.0 0.0 -1 ------- null}
r -t 1.36024 -s 0 -d 4 -p tcp -e 1040 -c 0 -i 46 -a 0 -x {0.0 4.0 10 ------- null}
+ -t 1.36024 -s 4 -d 0 -p ack -e 40 -c 0 -i 54 -a 0 -x {4.0 0.0 10 ------- null}
- -t 1.36024 -s 4 -d 0 -p ack -e 40 -c 0 -i 54 -a 0 -x {4.0 0.0 10 ------- null}
h -t 1.36024 -s 4 -d 0 -p ack -e 40 -c 0 -i 54 -a 0 -x {4.0 0.0 -1 ------- null}
r -t 1.361904 -s 0 -d 4 -p tcp -e 1040 -c 0 -i 47 -a 0 -x {0.0 4.0 11 ------- null}
+ -t 1.361904 -s 4 -d 0 -p ack -e 40 -c 0 -i 55 -a 0 -x {4.0 0.0 11 ------- null}
- -t 1.361904 -s 4 -d 0 -p ack -e 40 -c 0 -i 55 -a 0 -x {4.0 0.0 11 ------- null}
h -t 1.361904 -s 4 -d 0 -p ack -e 40 -c 0 -i 55 -a 0 -x {4.0 0.0 -1 ------- null}
r -t 1.363568 -s 0 -d 4 -p tcp -e 1040 -c 0 -i 48 -a 0 -x {0.0 4.0 12 ------- null}
+ -t 1.363568 -s 4 -d 0 -p ack -e 40 -c 0 -i 56 -a 0 -x {4.0 0.0 12 ------- null}
- -t 1.363568 -s 4 -d 0 -p ack -e 40 -c 0 -i 56 -a 0 -x {4.0 0.0 12 ------- null}
h -t 1.363568 -s 4 -d 0 -p ack -e 40 -c 0 -i 56 -a 0 -x {4.0 0.0 -1 ------- null}
r -t 1.365232 -s 0 -d 4 -p tcp -e 1040 -c 0 -i 49 -a 0 -x {0.0 4.0 13 ------- null}
+ -t 1.365232 -s 4 -d 0 -p ack -e 40 -c 0 -i 57 -a 0 -x {4.0 0.0 13 ------- null}
- -t 1.365232 -s 4 -d 0 -p ack -e 40 -c 0 -i 57 -a 0 -x {4.0 0.0 13 ------- null}
h -t 1.365232 -s 4 -d 0 -p ack -e 40 -c 0 -i 57 -a 0 -x {4.0 0.0 -1 ------- null}
r -t 1.366896 -s 0 -d 4 -p tcp -e 1040 -c 0 -i 50 -a 0 -x {0.0 4.0 14 ------- null}
+ -t 1.366896 -s 4 -d 0 -p ack -e 40 -c 0 -i 58 -a 0 -x {4.0 0.0 14 ------- null}
- -t 1.366896 -s 4 -d 0 -p ack -e 40 -c 0 -i 58 -a 0 -x {4.0 0.0 14 ------- null}
h -t 1.366896 -s 4 -d 0 -p ack -e 40 -c 0 -i 58 -a 0 -x {4.0 0.0 -1 ------- null}
r -t 1.405312 -s 4 -d 0 -p ack -e 40 -c 0 -i 51 -a 0 -x {4.0 0.0 7 ------- null}
+ -t 1.405312 -s 0 -d 4 -p tcp -e 1040 -c 0 -i 59 -a 0 -x {0.0 4.0 15 ------- null}
- -t 1.405312 -s 0 -d 4 -p tcp -e 1040 -c 0 -i 59 -a 0 -x {0.0 4.0 15 ------- null}
h -t 1.405312 -s 0 -d 4 -p tcp -e 1040 -c 0 -i 59 -a 0 -x {0.0 4.0 -1 ------- null}
+ -t 1.405312 -s 0 -d 4 -p tcp -e 1040 -c 0 -i 60 -a 0 -x {0.0 4.0 16 ------- null}
r -t 1.406976 -s 4 -d 0 -p ack -e 40 -c 0 -i 52 -a 0 -x {4.0 0.0 8 ------- null}
+ -t 1.406976 -s 0 -d 4 -p tcp -e 1040 -c 0 -i 61 -a 0 -x {0.0 4.0 17 ------- null}
+ -t 1.406976 -s 0 -d 4 -p tcp -e 1040 -c 0 -i 62 -a 0 -x {0.0 4.0 18 ------- null}
- -t 1.406976 -s 0 -d 4 -p tcp -e 1040 -c 0 -i 60 -a 0 -x {0.0 4.0 16 ------- null}
h -t 1.406976 -s 0 -d 4 -p tcp -e 1040 -c 0 -i 60 -a 0 -x {0.0 4.0 -1 ------- null}
r -t 1.40864 -s 4 -d 0 -p ack -e 40 -c 0 -i 53 -a 0 -x {4.0 0.0 9 ------- null}
+ -t 1.40864 -s 0 -d 4 -p tcp -e 1040 -c 0 -i 63 -a 0 -x {0.0 4.0 19 ------- null}
+ -t 1.40864 -s 0 -d 4 -p tcp -e 1040 -c 0 -i 64 -a 0 -x {0.0 4.0 20 ------- null}
- -t 1.40864 -s 0 -d 4 -p tcp -e 1040 -c 0 -i 61 -a 0 -x {0.0 4.0 17 ------- null}
h -t 1.40864 -s 0 -d 4 -p tcp -e 1040 -c 0 -i 61 -a 0 -x {0.0 4.0 -1 ------- null}
r -t 1.410304 -s 4 -d 0 -p ack -e 40 -c 0 -i 54 -a 0 -x {4.0 0.0 10 ------- null}
+ -t 1.410304 -s 0 -d 4 -p tcp -e 1040 -c 0 -i 65 -a 0 -x {0.0 4.0 21 ------- null}
+ -t 1.410304 -s 0 -d 4 -p tcp -e 1040 -c 0 -i 66 -a 0 -x {0.0 4.0 22 ------- null}
- -t 1.410304 -s 0 -d 4 -p tcp -e 1040 -c 0 -i 62 -a 0 -x {0.0 4.0 18 ------- null}
h -t 1.410304 -s 0 -d 4 -p tcp -e 1040 -c 0 -i 62 -a 0 -x {0.0 4.0 -1 ------- null}
r -t 1.411968 -s 4 -d 0 -p ack -e 40 -c 0 -i 55 -a 0 -x {4.0 0.0 11 ------- null}
+ -t 1.411968 -s 0 -d 4 -p tcp -e 1040 -c 0 -i 67 -a 0 -x {0.0 4.0 23 ------- null}
+ -t 1.411968 -s 0 -d 4 -p tcp -e 1040 -c 0 -i 68 -a 0 -x {0.0 4.0 24 ------- null}
- -t 1.411968 -s 0 -d 4 -p tcp -e 1040 -c 0 -i 63 -a 0 -x {0.0 4.0 19 ------- null}
h -t 1.411968 -s 0 -d 4 -p tcp -e 1040 -c 0 -i 63 -a 0 -x {0.0 4.0 -1 ------- null}
r -t 1.413632 -s 4 -d 0 -p ack -e 40 -c 0 -i 56 -a 0 -x {4.0 0.0 12 ------- null}
+ -t 1.413632 -s 0 -d 4 -p tcp -e 1040 -c 0 -i 69 -a 0 -x {0.0 4.0 25 ------- null}
+ -t 1.413632 -s 0 -d 4 -p tcp -e 1040 -c 0 -i 70 -a 0 -x {0.0 4.0 26 ------- null}
- -t 1.413632 -s 0 -d 4 -p tcp -e 1040 -c 0 -i 64 -a 0 -x {0.0 4.0 20 ------- null}
h -t 1.413632 -s 0 -d 4 -p tcp -e 1040 -c 0 -i 64 -a 0 -x {0.0 4.0 -1 ------- null}
r -t 1.415296 -s 4 -d 0 -p ack -e 40 -c 0 -i 57 -a 0 -x {4.0 0.0 13 ------- null}
+ -t 1.415296 -s 0 -d 4 -p tcp -e 1040 -c 0 -i 71 -a 0 -x {0.0 4.0 27 ------- null}
+ -t 1.415296 -s 0 -d 4 -p tcp -e 1040 -c 0 -i 72 -a 0 -x {0.0 4.0 28 ------- null}
- -t 1.415296 -s 0 -d 4 -p tcp -e 1040 -c 0 -i 65 -a 0 -x {0.0 4.0 21 ------- null}
h -t 1.415296 -s 0 -d 4 -p tcp -e 1040 -c 0 -i 65 -a 0 -x {0.0 4.0 -1 ------- null}
r -t 1.41696 -s 4 -d 0 -p ack -e 40 -c 0 -i 58 -a 0 -x {4.0 0.0 14 ------- null}
+ -t 1.41696 -s 0 -d 4 -p tcp -e 1040 -c 0 -i 73 -a 0 -x {0.0 4.0 29 ------- null}
+ -t 1.41696 -s 0 -d 4 -p tcp -e 1040 -c 0 -i 74 -a 0 -x {0.0 4.0 30 ------- null}
- -t 1.41696 -s 0 -d 4 -p tcp -e 1040 -c 0 -i 66 -a 0 -x {0.0 4.0 22 ------- null}
h -t 1.41696 -s 0 -d 4 -p tcp -e 1040 -c 0 -i 66 -a 0 -x {0.0 4.0 -1 ------- null}
- -t 1.418624 -s 0 -d 4 -p tcp -e 1040 -c 0 -i 67 -a 0 -x {0.0 4.0 23 ------- null}
h -t 1.418624 -s 0 -d 4 -p tcp -e 1040 -c 0 -i 67 -a 0 -x {0.0 4.0 -1 ------- null}
- -t 1.420288 -s 0 -d 4 -p tcp -e 1040 -c 0 -i 68 -a 0 -x {0.0 4.0 24 ------- null}
h -t 1.420288 -s 0 -d 4 -p tcp -e 1040 -c 0 -i 68 -a 0 -x {0.0 4.0 -1 ------- null}
- -t 1.421952 -s 0 -d 4 -p tcp -e 1040 -c 0 -i 69 -a 0 -x {0.0 4.0 25 ------- null}
h -t 1.421952 -s 0 -d 4 -p tcp -e 1040 -c 0 -i 69 -a 0 -x {0.0 4.0 -1 ------- null}
- -t 1.423616 -s 0 -d 4 -p tcp -e 1040 -c 0 -i 70 -a 0 -x {0.0 4.0 26 ------- null}
h -t 1.423616 -s 0 -d 4 -p tcp -e 1040 -c 0 -i 70 -a 0 -x {0.0 4.0 -1 ------- null}
- -t 1.42528 -s 0 -d 4 -p tcp -e 1040 -c 0 -i 71 -a 0 -x {0.0 4.0 27 ------- null}
h -t 1.42528 -s 0 -d 4 -p tcp -e 1040 -c 0 -i 71 -a 0 -x {0.0 4.0 -1 ------- null}
- -t 1.426944 -s 0 -d 4 -p tcp -e 1040 -c 0 -i 72 -a 0 -x {0.0 4.0 28 ------- null}
h -t 1.426944 -s 0 -d 4 -p tcp -e 1040 -c 0 -i 72 -a 0 -x {0.0 4.0 -1 ------- null}
- -t 1.428608 -s 0 -d 4 -p tcp -e 1040 -c 0 -i 73 -a 0 -x {0.0 4.0 29 ------- null}
h -t 1.428608 -s 0 -d 4 -p tcp -e 1040 -c 0 -i 73 -a 0 -x {0.0 4.0 -1 ------- null}
- -t 1.430272 -s 0 -d 4 -p tcp -e 1040 -c 0 -i 74 -a 0 -x {0.0 4.0 30 ------- null}
h -t 1.430272 -s 0 -d 4 -p tcp -e 1040 -c 0 -i 74 -a 0 -x {0.0 4.0 -1 ------- null}
r -t 1.456976 -s 0 -d 4 -p tcp -e 1040 -c 0 -i 59 -a 0 -x {0.0 4.0 15 ------- null}
+ -t 1.456976 -s 4 -d 0 -p ack -e 40 -c 0 -i 75 -a 0 -x {4.0 0.0 15 ------- null}
- -t 1.456976 -s 4 -d 0 -p ack -e 40 -c 0 -i 75 -a 0 -x {4.0 0.0 15 ------- null}
h -t 1.456976 -s 4 -d 0 -p ack -e 40 -c 0 -i 75 -a 0 -x {4.0 0.0 -1 ------- null}
r -t 1.45864 -s 0 -d 4 -p tcp -e 1040 -c 0 -i 60 -a 0 -x {0.0 4.0 16 ------- null}
+ -t 1.45864 -s 4 -d 0 -p ack -e 40 -c 0 -i 76 -a 0 -x {4.0 0.0 16 ------- null}
- -t 1.45864 -s 4 -d 0 -p ack -e 40 -c 0 -i 76 -a 0 -x {4.0 0.0 16 ------- null}
h -t 1.45864 -s 4 -d 0 -p ack -e 40 -c 0 -i 76 -a 0 -x {4.0 0.0 -1 ------- null}
r -t 1.460304 -s 0 -d 4 -p tcp -e 1040 -c 0 -i 61 -a 0 -x {0.0 4.0 17 ------- null}
+ -t 1.460304 -s 4 -d 0 -p ack -e 40 -c 0 -i 77 -a 0 -x {4.0 0.0 17 ------- null}
- -t 1.460304 -s 4 -d 0 -p ack -e 40 -c 0 -i 77 -a 0 -x {4.0 0.0 17 ------- null}
h -t 1.460304 -s 4 -d 0 -p ack -e 40 -c 0 -i 77 -a 0 -x {4.0 0.0 -1 ------- null}
r -t 1.461968 -s 0 -d 4 -p tcp -e 1040 -c 0 -i 62 -a 0 -x {0.0 4.0 18 ------- null}
+ -t 1.461968 -s 4 -d 0 -p ack -e 40 -c 0 -i 78 -a 0 -x {4.0 0.0 18 ------- null}
- -t 1.461968 -s 4 -d 0 -p ack -e 40 -c 0 -i 78 -a 0 -x {4.0 0.0 18 ------- null}
h -t 1.461968 -s 4 -d 0 -p ack -e 40 -c 0 -i 78 -a 0 -x {4.0 0.0 -1 ------- null}
r -t 1.463632 -s 0 -d 4 -p tcp -e 1040 -c 0 -i 63 -a 0 -x {0.0 4.0 19 ------- null}
+ -t 1.463632 -s 4 -d 0 -p ack -e 40 -c 0 -i 79 -a 0 -x {4.0 0.0 19 ------- null}
- -t 1.463632 -s 4 -d 0 -p ack -e 40 -c 0 -i 79 -a 0 -x {4.0 0.0 19 ------- null}
h -t 1.463632 -s 4 -d 0 -p ack -e 40 -c 0 -i 79 -a 0 -x {4.0 0.0 -1 ------- null}
r -t 1.465296 -s 0 -d 4 -p tcp -e 1040 -c 0 -i 64 -a 0 -x {0.0 4.0 20 ------- null}
+ -t 1.465296 -s 4 -d 0 -p ack -e 40 -c 0 -i 80 -a 0 -x {4.0 0.0 20 ------- null}
- -t 1.465296 -s 4 -d 0 -p ack -e 40 -c 0 -i 80 -a 0 -x {4.0 0.0 20 ------- null}
h -t 1.465296 -s 4 -d 0 -p ack -e 40 -c 0 -i 80 -a 0 -x {4.0 0.0 -1 ------- null}
r -t 1.46696 -s 0 -d 4 -p tcp -e 1040 -c 0 -i 65 -a 0 -x {0.0 4.0 21 ------- null}
+ -t 1.46696 -s 4 -d 0 -p ack -e 40 -c 0 -i 81 -a 0 -x {4.0 0.0 21 ------- null}
- -t 1.46696 -s 4 -d 0 -p ack -e 40 -c 0 -i 81 -a 0 -x {4.0 0.0 21 ------- null}
h -t 1.46696 -s 4 -d 0 -p ack -e 40 -c 0 -i 81 -a 0 -x {4.0 0.0 -1 ------- null}
r -t 1.468624 -s 0 -d 4 -p tcp -e 1040 -c 0 -i 66 -a 0 -x {0.0 4.0 22 ------- null}
+ -t 1.468624 -s 4 -d 0 -p ack -e 40 -c 0 -i 82 -a 0 -x {4.0 0.0 22 ------- null}
- -t 1.468624 -s 4 -d 0 -p ack -e 40 -c 0 -i 82 -a 0 -x {4.0 0.0 22 ------- null}
h -t 1.468624 -s 4 -d 0 -p ack -e 40 -c 0 -i 82 -a 0 -x {4.0 0.0 -1 ------- null}
r -t 1.470288 -s 0 -d 4 -p tcp -e 1040 -c 0 -i 67 -a 0 -x {0.0 4.0 23 ------- null}
+ -t 1.470288 -s 4 -d 0 -p ack -e 40 -c 0 -i 83 -a 0 -x {4.0 0.0 23 ------- null}
- -t 1.470288 -s 4 -d 0 -p ack -e 40 -c 0 -i 83 -a 0 -x {4.0 0.0 23 ------- null}
h -t 1.470288 -s 4 -d 0 -p ack -e 40 -c 0 -i 83 -a 0 -x {4.0 0.0 -1 ------- null}
r -t 1.471952 -s 0 -d 4 -p tcp -e 1040 -c 0 -i 68 -a 0 -x {0.0 4.0 24 ------- null}
+ -t 1.471952 -s 4 -d 0 -p ack -e 40 -c 0 -i 84 -a 0 -x {4.0 0.0 24 ------- null}
- -t 1.471952 -s 4 -d 0 -p ack -e 40 -c 0 -i 84 -a 0 -x {4.0 0.0 24 ------- null}
h -t 1.471952 -s 4 -d 0 -p ack -e 40 -c 0 -i 84 -a 0 -x {4.0 0.0 -1 ------- null}
r -t 1.473616 -s 0 -d 4 -p tcp -e 1040 -c 0 -i 69 -a 0 -x {0.0 4.0 25 ------- null}
+ -t 1.473616 -s 4 -d 0 -p ack -e 40 -c 0 -i 85 -a 0 -x {4.0 0.0 25 ------- null}
- -t 1.473616 -s 4 -d 0 -p ack -e 40 -c 0 -i 85 -a 0 -x {4.0 0.0 25 ------- null}
h -t 1.473616 -s 4 -d 0 -p ack -e 40 -c 0 -i 85 -a 0 -x {4.0 0.0 -1 ------- null}
r -t 1.47528 -s 0 -d 4 -p tcp -e 1040 -c 0 -i 70 -a 0 -x {0.0 4.0 26 ------- null}
+ -t 1.47528 -s 4 -d 0 -p ack -e 40 -c 0 -i 86 -a 0 -x {4.0 0.0 26 ------- null}
- -t 1.47528 -s 4 -d 0 -p ack -e 40 -c 0 -i 86 -a 0 -x {4.0 0.0 26 ------- null}
h -t 1.47528 -s 4 -d 0 -p ack -e 40 -c 0 -i 86 -a 0 -x {4.0 0.0 -1 ------- null}
r -t 1.476944 -s 0 -d 4 -p tcp -e 1040 -c 0 -i 71 -a 0 -x {0.0 4.0 27 ------- null}